BEGIN_CFG
 Size
    448
 Supercell
        18.994703      0.000000      0.000000
         0.000000     18.994703      0.000000
         0.000000      0.000000     18.994703
 AtomData:  id type       cartes_x      cartes_y      cartes_z           fx          fy          fz
             1    0       0.800150      3.647040      2.570000    -0.142553    0.079095   -0.088721
             2    0      10.338310      4.088620      2.682980    -0.366113   -0.025550    0.112406
             3    0       0.961520     13.228600      2.675440    -0.605973    0.415671   -0.252127
             4    0       9.943370     13.779180      2.467050    -0.148865   -0.774027    0.209603
             5    0       0.448780      4.243920     12.077620     0.256637    0.301644    0.614225
             6    0      10.613700      3.963200     12.306620     0.311130   -0.129464   -0.101631
             7    0       0.577620     13.460190     11.867590     0.272613   -0.099889    0.060106
             8    0      10.308580     13.214980     11.747420     0.009978    0.049765    0.057917
             9    0       3.874800      5.708160      6.704810     0.572127    0.191852    0.269141
            10    0      13.606370      5.394590      7.191530    -0.077987    0.018465   -0.291895
            11    0       3.956460     15.391460      7.578700     0.345997   -0.119389   -0.563796
            12    0      13.738040     15.192510      7.343990    -0.353724   -0.064383   -0.242670
            13    0       4.212350      6.134310     17.175160     0.449948   -0.402984   -0.029831
            14    0      13.537490      5.311130     16.712590     0.552887    0.493650    0.596344
            15    0       4.218510     15.132590     16.926990    -0.512915   -0.108681   -0.554875
            16    0      13.625770     15.200750     16.538720    -0.223414    0.318822   -0.387335
            17    0       8.821310      8.624800      2.547400    -0.629387    0.051858   -0.289120
            18    0      18.463590      8.590970      2.285870    -0.305634    0.435801   -0.096381
            19    0       8.700920     17.956300      2.457680    -0.113054   -0.192241    0.265537
            20    0      18.310320     17.973830      2.515130    -0.194913   -0.393402   -0.004729
            21    0       9.111350      9.021170     11.739340    -0.064388    0.102153    0.546833
            22    0      18.543990      8.598440     11.734760    -0.887676    0.338527    0.171991
            23    0       8.618120     18.138070     12.183830     0.098977   -0.146709   -0.137139
            24    0      18.426960     17.454800     11.549440     0.297280    0.261980   -0.012713
            25    0       5.353340      0.872480      6.716900     0.367571    0.317229    0.162688
            26    0      15.118150      0.540000      7.086840     0.038126    0.464609   -0.388790
            27    0       5.384930     10.336090      6.867110     0.224428    0.161996   -0.049892
            28    0      15.471900     10.243280      7.795110    -1.100112   -1.266008    0.306442
            29    0       5.684420      0.733150     16.620800    -0.601529    0.697254   -0.708235
            30    0      14.666290      0.728030     16.441460     0.016825    0.052887    0.022156
            31    0       4.513220      9.771220     16.264570     1.308475    0.223022    0.399204
            32    0      15.109260     10.175280     16.940910    -0.675087   -0.084717    0.168960
            33    0       2.144920      0.633990      4.004810     0.485362    0.685067    0.187871
            34    0      11.801630      0.743890      3.689840     0.316098    0.614699   -0.650575
            35    0       2.556050     10.472010      4.174290     0.216962   -0.072612   -0.957408
            36    0      12.267930     10.174770      3.648980    -0.263501    0.784244    0.354168
            37    0       2.036460      1.075080     13.254250     0.081143   -0.349618   -0.394822
            38    0      11.871850      0.562620     13.212640     0.459051    0.603665    0.213744
            39    0       2.661560     10.110780     13.068730    -0.405382   -0.092227   -0.038460
            40    0      12.278740     10.182770     13.160410     0.180608    0.222899    0.207559
            41    0       7.278830      4.135740      5.453410    -0.262320    0.537348   -0.175695
            42    0      16.986890      4.061670      5.237970     0.077235    0.219994    0.179011
            43    0       7.396320     13.311100      5.541900    -0.101540    0.523541    0.066693
            44    0      16.813780     13.635170      5.667820    -0.041844   -0.277860   -0.266730
            45    0       7.773250      4.251960     15.321640    -0.235406   -0.247831    0.185603
            46    0      16.623170      3.914880     15.053680     0.220524    0.127695    0.284116
            47    0       7.309720     13.966550     14.647390    -0.263547    0.171984    0.635631
            48    0      17.065050     13.309290     15.064190    -0.144466    0.319590    0.140847
            49    0       2.625880      9.006730      8.603570    -0.370106   -0.965390    0.095229
            50    0      11.568970      8.744270      8.517660    -0.790324   -0.276860   -0.187312
            51    0       2.590940     17.860960      8.391490     0.193545    0.857832    0.356123
            52    0      12.011230     18.380820      8.664130    -0.757492    0.141951   -0.911527
            53    0       1.926070      8.801950     17.961550     0.389865   -0.568987   -0.130093
            54    0      11.361600      8.751660     17.917820     0.945942   -0.759881    0.272221
            55    0       2.089810     18.350840     18.134780     0.144221   -0.146164   -0.166695
            56    0      11.370340     18.145720     18.217610     0.220369    0.585341   -0.359003
            57    0       7.294250      5.145590      0.654890    -0.134419    0.470158   -0.134046
            58    0      16.977270      5.692440      1.169950     0.229666   -1.275894   -0.584129
            59    0       6.988150     14.922450      0.668340    -0.055933    0.010512    0.261199
            60    0      16.292300     14.967510      0.539090     0.400925    0.114692    0.284940
            61    0       6.151610      6.395090     10.730270    -0.239294   -0.527261   -0.189723
            62    0      16.689240      5.420230     10.540470    -0.155802    0.293968    0.054615
            63    0       7.274080     15.174860     10.547320    -0.377723    0.344960    0.185028
            64    0      16.460930     14.743800     10.156770     0.368235   -0.523104    0.337911
            65    0       3.943670      2.689460      0.595570    -0.090832   -0.127771    0.269301
            66    0      13.588160      2.588070      0.670480    -0.123104   -0.070100   -0.096598
            67    0       4.073550     11.800440      0.632780     0.138889    0.121887   -0.403020
            68    0      13.214540     12.150920      0.587110     0.226137    0.469127    0.486169
            69    0       4.077100      2.190990     10.240380     0.907624   -0.811371   -0.829866
            70    0      13.642980      2.547220      9.793660     0.141358   -0.157819   -0.333743
            71    0       4.233380     12.164500     10.034350    -0.166562    0.234817    0.628835
            72    0      13.585310     11.755350      9.813300    -0.124431    0.168427    0.239862
            73    0       5.596620      7.429460      4.091570     0.076365    0.109800   -0.132452
            74    0      15.139900      7.188830      4.054370    -0.347538    0.180508    0.070748
            75    0       5.521170     16.721390      4.115640     0.788322    0.116845    0.086377
            76    0      14.837380     16.759770      4.121900     0.647561    0.535673   -0.162695
            77    0       5.487190      7.102430     13.317810     0.363211   -0.002956    0.202985
            78    0      15.140340      7.199560     13.534170     0.067035   -0.225016    0.427583
            79    0       5.262390     16.985870     13.554830     0.347262    0.215399    0.370744
            80    0      15.389860     15.748450     13.304850    -0.683220   -0.056675    0.731425
            81    0       8.426140      1.732560      8.338740     0.040502    0.381093   -0.264182
            82    0      18.245200      2.380960      8.836210     0.162554    0.032909    0.122097
            83    0       8.875390     11.762630      8.972140    -0.216878   -0.220687   -0.284108
            84    0      18.093450     11.171600      8.730260    -0.000221   -0.212010    0.225495
            85    0       8.539860      2.605870     18.664380     0.135028   -0.789516   -2.180868
            86    0      17.911950      1.967400     18.303800    -0.256474    0.500006   -0.315621
            87    0       8.541080     11.642990     18.176830     0.037825    0.234582    0.303289
            88    0      18.160880     11.899890     18.275270    -0.081869   -0.121962   -0.324470
            89    0       0.654410      7.062170      5.350860     0.427527   -0.204614    0.152359
            90    0       9.592570      7.046320      4.704450     0.451133    0.137931    0.285923
            91    0       0.692420     16.395380      5.335280    -0.566349   -0.059163    0.621728
            92    0      10.651480     16.525500      5.289150    -0.177908    0.027448    0.295389
            93    0       0.381930      6.824620     14.841290     0.329214   -0.044178   -0.302354
            94    0      10.334520      7.288180     15.143090    -0.288036    0.400842   -0.545997
            95    0       0.956750     16.544010     15.120910     0.296975    0.123946   -0.762069
            96    0      10.038640     16.264510     15.047750     0.777877    0.408794    0.060119
            97    0       2.191260      4.785000      4.956970    -0.160315    0.195638    0.030901
            98    0      11.617890      4.954710      4.776910    -0.275671    0.001359   -0.243429
            99    0       2.073500     14.464930      4.734990     1.087809   -0.566257    0.444513
           100    0      12.089670     13.657120      4.054250    -0.255822   -0.311737    0.126704
           101    0       2.222360      4.737680     14.352640    -0.692031    0.165555   -0.119791
           102    0      11.713580      5.032730     14.466680    -1.460450    0.931195   -0.960815
           103    0       2.289120     13.933600     13.749190    -0.639047   -0.303818    0.020718
           104    0      11.795500     14.173390     14.248160     0.148679    0.203862   -0.252065
           105    0       2.963510      4.234480      9.585760    -1.411412    0.213752    0.038644
           106    0      12.116920      4.700990      9.233980    -0.175726   -0.207486    0.218317
           107    0       2.711250     14.161980      9.345770    -0.049950   -0.090131    0.256421
           108    0      12.016490     14.186050      9.593120    -0.307806   -0.228075   -0.084149
           109    0       2.635430      4.909680     18.870360     0.132721   -0.198732    0.093626
           110    0      12.216900      4.529150     18.852670    -0.094767    0.270086    0.161087
           111    0       2.702630     14.409680      0.026630     0.103463   -0.251219   -0.329077
           112    0      12.215860     14.675800     18.394980    -0.627980    0.257128    0.266995
           113    0       7.381540     18.732320      0.568480    -0.462836   -0.139387   -0.103805
           114    0      17.054370     18.412250      0.421680    -1.114501    0.156853    0.122111
           115    0       7.468670      9.420290      0.125820     0.034196    0.197248    0.432990
           116    0      16.884240      9.512700      0.292950    -0.018164   -0.193899   -0.392102
           117    0       7.647160     18.737000      9.463550    -0.211334   -0.321183    0.462705
           118    0      16.864500      0.440640      9.181390     0.525214   -0.830587   -0.429220
           119    0       6.958470      8.553570     10.091750     0.514327    0.581215    1.087045
           120    0      16.731400      8.986190      9.821560     0.428676    0.240602    0.030426
           121    0       6.944810     18.846420      4.621340    -0.105019   -0.252801    0.396003
           122    0      16.444360     18.719610      4.631960    -0.420601   -0.243238    0.425372
           123    0       6.952490      9.598050      5.022260    -0.311546   -0.210611    0.180008
           124    0      16.451230      9.861920      5.169360     0.072269    1.033550   -0.248582
           125    0       6.907440      0.033090     14.326300     0.043484   -0.252384    0.272751
           126    0      16.474380     18.318550     13.551530     0.132891    0.132135   -0.059816
           127    0       6.736190     10.331340     14.933240     0.443725    0.592053    0.204068
           128    0      16.244810      9.676620     14.629760     0.667515   -0.333690   -0.221338
           129    0       4.466340      2.042420      4.422080    -0.687149   -0.580509    0.265174
           130    0      13.730290      2.096130      4.463460     0.260068   -0.054126   -0.323210
           131    0       4.875030     11.696800      4.742140    -0.938033   -0.894199    0.834770
           132    0      14.252990     11.763840      4.643870     0.034643    0.140707   -0.044067
           133    0       4.147500      2.322490     13.394450    -0.093822   -0.204014    0.595759
           134    0      14.063250      2.099720     13.951980    -0.230951    0.798548    0.281559
           135    0       4.406320     11.481220     14.156980     0.774297   -0.082536   -0.281559
           136    0      14.602900     11.455150     14.692310    -0.146267    0.747456   -0.271250
           137    0       8.559790      2.086580      5.795390     0.048556   -0.396383   -0.160504
           138    0      17.818000      1.707250      5.465900     0.100150    0.355284    0.317321
           139    0       9.515190     12.384120      4.679820     0.236773   -0.261902   -0.040091
           140    0      18.631230     11.817150      5.041780    -0.244248    0.754787   -0.067545
           141    0       9.447020      2.731220     14.100970     0.182259    0.748692    0.355843
           142    0      17.958600      1.782990     15.175400    -0.296961    0.283920    0.462055
           143    0       9.263770     12.001180     14.906260    -0.463399   -0.110959   -0.524164
           144    0       0.047980     11.980340     14.128160    -0.120125    0.354423   -0.428435
           145    0      18.970080      7.153590      0.265420     0.177330   -0.089395    0.068269
           146    0       9.440540      7.412320      0.341140     0.188127   -0.086470    0.124783
           147    0      18.904120     16.894330      0.194940     0.874017   -0.114375    0.401180
           148    0       9.471930     16.960110      0.150090    -0.157568   -0.240341    0.217044
           149    0      18.739120      7.068040      9.665980     0.149098    0.406921    0.017483
           150    0       9.544160      7.387800      9.824010    -0.285167    0.035367   -0.349866
           151    0       0.493720     16.516860      9.219870    -0.238978    1.133561   -0.340414
           152    0       9.949540     16.867800      9.331950    -0.067482    0.324643   -0.108886
           153    0       5.442990      6.928510      0.765680     0.182841   -0.000609   -0.352851
           154    0      14.327230      6.811440      0.447070     0.718581   -0.534294   -0.397849
           155    0       4.887960     16.386710     18.863780    -0.244255    0.743706    0.812766
           156    0      14.218640     16.494080     18.656400    -0.498771   -0.634473    0.490965
           157    0       4.516560      7.124970      8.905660    -0.003072    0.224406    0.173597
           158    0      13.239140      6.964090      9.039120     0.282033   -0.489028   -0.456003
           159    0       4.976960     16.360300      9.765360     0.308015    0.367204    0.055759
           160    0      14.719320     16.318370      9.788060    -0.493581    0.412132    0.277816
           161    0       4.647500      4.695030      2.107440    -0.180740    0.217499    0.504984
           162    0      14.556780      4.945160      2.267570    -0.135400    0.024115   -0.250907
           163    0       4.317910     14.013680      2.070870     0.162826   -0.168754    0.058462
           164    0      14.294180     14.408830      2.090920     0.643823   -0.740097   -0.310623
           165    0       4.569040      4.753880     11.560330     0.373170   -0.656396   -0.106537
           166    0      13.480860      3.850600     11.646620    -0.477527    0.488789    0.815576
           167    0       4.793380     14.385050     11.406410     0.397942   -0.463700   -0.128302
           168    0      13.699290     13.605690     11.633090     0.238576    0.461585    0.260317
           169    0       4.521730      9.387120      2.649080     0.492310    0.662760    0.210082
           170    0      14.142340      9.503830      2.270610     0.118275   -0.305394    0.138197
           171    0       4.591300      0.003430      2.779090     0.224356    0.298664   -0.762977
           172    0      14.052730     18.825080      2.731190     0.193049    0.268577   -0.265752
           173    0       4.927810      9.546270     12.080450    -0.253228   -0.091734   -0.454186
           174    0      14.814770      9.161200     12.138660    -0.463346   -0.481425    0.715237
           175    0       4.771340      0.323310     12.047780    -0.223169   -0.493113   -0.065517
           176    0      14.136200     18.833220     11.818440     0.371053    0.583548    0.694142
           177    0       0.205850      0.087720      7.629950    -0.063389   -0.059266   -0.509494
           178    0       9.807850      0.105520      7.095350    -0.039977   -0.302955    0.277932
           179    0       0.451280      9.243030      7.334770    -0.416109   -0.333895    0.226259
           180    0       9.416340      9.924080      7.259380     0.213469    0.237113    0.345979
           181    0      18.887890     18.984790     16.728660     0.376226    0.259897   -0.910800
           182    0       8.800290      0.734680     16.831670     0.363679    0.001552   -0.076631
           183    0      18.766090      9.862020     16.962340    -0.174075   -0.086881   -0.672949
           184    0       9.563120      9.869850     16.836110    -0.343533    0.012949   -1.438975
           185    0      18.922250      4.859020      6.732230     0.369479   -0.228619   -0.026659
           186    0      10.214390      5.383590      6.760760    -0.115240    0.453160    0.317339
           187    0       0.000350     13.857040      7.072380    -0.551046    0.539372   -0.962167
           188    0       9.501180     14.296970      6.747210    -0.037872   -0.010627    0.502281
           189    0       0.777540      5.422810     16.989360     0.681898    0.071532   -0.895494
           190    0       9.961580      5.361110     16.411490    -0.327264   -0.610313    0.132950
           191    0       0.435450     14.603590     16.443330    -0.473641    0.129658    0.202799
           192    0       9.191340     13.899600     16.616310    -0.305905    0.295888   -0.294036
           193    0       1.380090      0.981870      1.427190    -0.173767   -0.159339   -0.318217
           194    0      10.674630      1.767170      1.322600    -0.514205   -0.793526   -0.471922
           195    0       1.238180     10.708230      1.527000     0.117686    0.184840   -0.001032
           196    0      10.293460     11.022480      1.382040     0.363523    0.543967    0.524649
           197    0       0.720490      1.762160     11.146900    -0.332114   -0.441776   -0.108683
           198    0      10.037310      2.363410     10.168180     0.327545    0.028381   -0.036696
           199    0       1.239630     10.991790     10.779650    -0.162671   -0.313862    0.072399
           200    0      11.913330      9.992040     10.605670    -0.479293    0.637449    0.152938
           201    0       2.805710      8.665560      6.100860     0.217287    0.075738   -0.254094
           202    0      13.692760      8.165250      6.018070    -0.506528   -0.167517    0.099107
           203    0       3.282960     17.362380      5.884720    -0.483578   -0.432194    0.571040
           204    0      13.059360     17.477360      6.303800     0.503192    0.734227   -0.657776
           205    0       2.680010      8.623690     15.414200    -0.370632    0.533164   -1.298519
           206    0      12.500290      8.578560     15.699750    -0.153929   -0.128618    0.134405
           207    0       3.085000     18.027130     15.670510     0.524190    0.348888   -0.528465
           208    0      13.108470     17.828030     15.656200    -0.174039   -0.204917   -0.094717
           209    0       8.378860      5.808310      3.037150    -0.016842   -0.374431   -0.387550
           210    0      17.844280      6.664780      3.647990     0.443325   -0.942035    0.560381
           211    0       7.963170     15.515660      3.290330    -0.589328    0.590527   -0.530302
           212    0      17.588950     15.672590      3.747410    -0.091713    0.133058   -0.301757
           213    0       8.354490      5.539710     11.790120     0.051712    1.275566    0.607916
           214    0      17.556040      5.889660     13.116990     0.246457   -0.046170    0.073007
           215    0       8.340440     15.400400     12.907510    -0.402726    0.793818   -0.522383
           216    0      17.722400     15.178630     12.767710    -0.207546    0.491558   -0.719766
           217    0       6.971280      4.058570      8.805500     0.160077    0.035380    0.323796
           218    0      15.345460      4.035010      8.037550     0.654525   -0.829495    0.079388
           219    0       6.505890     12.805490      8.642140     0.326494   -0.277443   -0.243800
           220    0      15.142870     12.814800      8.101160     0.338199   -0.222347   -0.488625
           221    0       6.217340      3.980120     17.500960    -0.185331    0.453234    0.345258
           222    0      16.393440      4.197280     17.906640    -0.135183   -0.356844    0.153838
           223    0       5.281320     12.306300     16.705270    -0.538602    0.112280    0.037613
           224    0      15.318460     12.994090     17.385050     0.507281   -0.431294   -0.305737
           225    1       7.181150      7.092410      7.233720     0.356296    0.872293   -0.528677
           226    1      16.641000      7.065930      7.000660     0.169129    0.059331    0.957766
           227    1       7.206850     16.666590      7.212370     0.474611    0.600962    0.334014
           228    1      16.767790     16.537680      7.265680    -0.343202    0.820082   -1.069030
           229    1       7.154640      7.437290     16.763840     0.474375   -0.385184   -0.596338
           230    1      16.650810      7.041600     16.719290     0.505715    0.967424    0.310774
           231    1       7.207430     16.813090     16.743600    -0.729452   -1.429960   -0.278165
           232    1      16.664630     16.722840     16.480120    -0.304739   -0.381350    0.122360
           233    1       6.909970      2.418690      2.625370     0.479448    0.158765   -0.141064
           234    1      16.498780      2.335690      2.299920    -0.441574   -0.301315    0.410303
           235    1       7.059100     11.870070      2.371910     0.951228   -1.067011    0.532339
           236    1      16.655220     11.902880      2.227680    -0.880597    0.103948    0.404138
           237    1       7.135360      2.453530     11.800400     0.543791   -0.542224    0.797235
           238    1      16.578300      2.279040     11.999240     0.288275   -0.828014   -0.804019
           239    1       7.146860     11.969910     11.866880     0.354427   -0.789413    1.281832
           240    1      16.527890     11.811860     11.907700     0.854581    0.031672   -0.201356
           241    1       2.374860      2.403810      7.065260     0.415421    0.107941    0.349525
           242    1      11.782650      2.306460      6.951630    -0.658489    0.951746    0.125889
           243    1       2.414190     11.974720      7.207480     0.934338   -0.318823   -0.585432
           244    1      11.957590     11.825770      7.132390    -0.072198    0.328711   -0.645902
           245    1       2.440000      2.483740     16.569440    -0.257090   -0.114193   -0.657625
           246    1      11.724860      2.444100     16.592660     0.837995   -0.743622   -0.416771
           247    1       2.264130     11.874060     16.518960    -0.426033    0.104672   -0.565304
           248    1      12.034210     11.964140     16.613270    -0.019508   -0.358012    0.169460
           249    1       2.509080      7.075800      2.431810    -0.769111    0.045596   -0.255267
           250    1      11.931860      7.150100      2.304830     0.477679    0.438969   -0.658663
           251    1       2.494840     16.654560      2.516430    -0.830525   -0.489967   -0.821520
           252    1      11.971480     16.546920      2.199400    -0.937679    0.900286   -0.202392
           253    1       2.430170      6.978520     11.796620     0.176135    0.814897    0.019237
           254    1      11.966770      7.156220     12.064440     0.368517   -0.700315   -1.390574
           255    1       2.490550     16.671110     11.915860     1.609697   -0.324305   -0.375416
           256    1      11.918250     16.620350     11.806020    -1.359413   -1.006413    1.188842
           257    2       6.036810      6.061080      5.858000    -0.171879   -0.004310    0.423440
           258    2      15.475270      5.861140      5.810270     0.305711   -0.260351    0.329003
           259    2       6.235250     15.336140      6.065170    -1.283760   -0.136981   -0.644720
           260    2      15.576800     15.563440      5.897700    -0.304822   -0.926615    0.202740
           261    2       6.183120      6.105420     15.561680    -0.888203   -0.413031   -0.256196
           262    2      15.494100      5.876900     15.586740    -0.692407   -0.156605   -1.054733
           263    2       5.885580     15.698060     15.520650     0.678954   -0.043265   -0.330609
           264    2      15.568980     15.297160     15.435940     0.230186   -0.083155    0.369034
           265    2       8.324070      3.423890      1.512560     0.403096    1.607038    1.095728
           266    2      17.803550      3.517530      1.240000     0.238103   -0.037786    0.002630
           267    2       8.139740     12.954130      1.037630     0.507379    0.603976    0.168104
           268    2      17.822710     13.099000      1.105000     0.393290    0.671645   -0.079385
           269    2       8.401760      3.747310     10.704950    -1.178813   -1.385376   -0.367420
           270    2      17.808670      3.492070     10.820970     0.039433   -0.013850   -0.576904
           271    2       8.242430     13.184120     10.654970     0.680657   -0.213814   -0.015778
           272    2      17.830680     12.818160     10.584470    -0.558439    0.232980    0.255009
           273    2       3.565790      1.164210      8.192810     0.202768   -0.649660    0.148651
           274    2      13.138380      1.306480      8.055490     0.187951   -1.195423    0.723043
           275    2       3.745600     10.826430      8.344600    -0.270767    0.187184   -0.659046
           276    2      13.082940     10.349700      8.101410    -0.119282    0.895588   -0.190351
           277    2       3.464900      1.255440     17.808240     0.977061   -0.678770    0.242934
           278    2      12.905940      1.193780     17.807110    -0.472206    0.471283   -0.258855
           279    2       3.303740     10.666770     17.765130     0.589645   -0.123818    1.286331
           280    2      12.907990     10.715380     17.961760     0.957799   -0.841536   -0.529963
           281    2       1.316040      8.385950      3.579010     0.136360   -0.018103   -0.370322
           282    2      10.818240      8.469900      3.393910    -0.105194   -0.191496    0.617050
           283    2       1.197370     17.731670      3.726100    -0.287339   -0.158523   -0.609728
           284    2      10.805260     17.829280      3.439830    -0.691260   -0.757218   -0.237969
           285    2       1.186980      8.056110     13.021110     0.541257    0.764924    1.033965
           286    2      10.799440      8.337860     13.214390    -0.279131    0.562428   -0.192486
           287    2       1.324390     17.739870     13.103500    -1.022151    0.755116    0.388653
           288    2      10.640060     17.762270     13.038090     0.435545   -0.486188   -0.136790
           289    2       1.237520      5.689770      1.444310     0.622442    0.680588   -0.079990
           290    2      10.872430      5.786900      1.246440    -0.712560    0.034171   -0.479191
           291    2       1.296180     15.374160      1.345810    -0.679950    0.390521    0.215733
           292    2      10.776310     15.262140      1.134300     0.078920    0.847183   -0.624822
           293    2       1.305500      5.819260     10.604770     0.050824   -1.098717   -0.210624
           294    2      10.814270      5.852300     10.826440     0.278928    0.379706    0.049245
           295    2       1.446820     15.393680     10.752770    -0.675382   -1.482738   -0.097942
           296    2      10.547910     15.308390     10.863480     0.942029    0.724032    0.180039
           297    2       3.690700      3.587030      5.977460    -0.408988   -0.627086    0.528324